<?xml version="1.0" encoding="UTF-8"?>

<!-- generated on 2024-09-19 16:06:44 by Eclipse SUMO GUI Version 1.20.0
<configuration xmlns:xsi="http://www.w3.org/2001/XMLSchema-instance" xsi:noNamespaceSchemaLocation="http://sumo.dlr.de/xsd/sumoConfiguration.xsd">

    <input>
        <net-file value="C:\Users\pouri\PycharmProjects\TLSC_research\5x5.net.xml"/>
        <route-files value="C:\Users\pouri\PycharmProjects\TLSC_research\5x5.rou.xml"/>
        <additional-files value="C:\Users\pouri\PycharmProjects\TLSC_research\edg.add.xml,C:\Users\pouri\PycharmProjects\TLSC_research\indloop.add.xml"/>
    </input>

    <output>
        <queue-output value="C:\Users\pouri\PycharmProjects\TLSC_research\outputs/queue.xml"/>
        <queue-output.period value="40"/>
        <summary-output value="C:\Users\pouri\PycharmProjects\TLSC_research\outputs/summary.xml"/>
        <tripinfo-output value="C:\Users\pouri\PycharmProjects\TLSC_research\outputs/tripinfo.xml"/>
    </output>

    <time>
        <begin value="0"/>
        <end value="7200"/>
    </time>

</configuration>
-->

<queue-export xmlns:xsi="http://www.w3.org/2001/XMLSchema-instance" xsi:noNamespaceSchemaLocation="http://sumo.dlr.de/xsd/queue_file.xsd">
    <data timestep="0.00">
        <lanes/>
    </data>
    <data timestep="40.00">
        <lanes/>
    </data>
    <data timestep="80.00">
        <lanes>
            <lane id="A0A1_0" queueing_time="13.00" queueing_length="6.00" queueing_length_experimental="6.00"/>
            <lane id="A0A1_1" queueing_time="7.00" queueing_length="6.00" queueing_length_experimental="6.00"/>
            <lane id="A0B0_0" queueing_time="13.00" queueing_length="6.00" queueing_length_experimental="6.00"/>
            <lane id="A2A1_0" queueing_time="10.00" queueing_length="6.00" queueing_length_experimental="6.00"/>
            <lane id="A2A1_2" queueing_time="12.00" queueing_length="13.50" queueing_length_experimental="13.50"/>
            <lane id="A3A2_0" queueing_time="19.00" queueing_length="6.00" queueing_length_experimental="6.00"/>
            <lane id="A3A2_2" queueing_time="20.00" queueing_length="13.50" queueing_length_experimental="13.50"/>
            <lane id="B0C0_0" queueing_time="7.00" queueing_length="6.00" queueing_length_experimental="6.00"/>
            <lane id="B1B2_0" queueing_time="26.00" queueing_length="13.50" queueing_length_experimental="13.50"/>
            <lane id="B1B2_1" queueing_time="0.00" queueing_length="0.00" queueing_length_experimental="6.05"/>
            <lane id="B1B2_2" queueing_time="23.00" queueing_length="6.00" queueing_length_experimental="6.00"/>
            <lane id="B2B1_0" queueing_time="15.00" queueing_length="6.00" queueing_length_experimental="6.00"/>
            <lane id="B2B1_2" queueing_time="19.00" queueing_length="28.50" queueing_length_experimental="28.50"/>
            <lane id="B2B3_0" queueing_time="37.00" queueing_length="5.90" queueing_length_experimental="5.90"/>
            <lane id="B3B2_0" queueing_time="19.00" queueing_length="6.00" queueing_length_experimental="6.00"/>
            <lane id="B4B3_0" queueing_time="17.00" queueing_length="6.00" queueing_length_experimental="6.00"/>
            <lane id="B4C4_0" queueing_time="26.00" queueing_length="6.00" queueing_length_experimental="6.00"/>
            <lane id="C0B0_0" queueing_time="19.00" queueing_length="6.00" queueing_length_experimental="6.00"/>
            <lane id="C0D0_2" queueing_time="8.00" queueing_length="21.00" queueing_length_experimental="21.00"/>
            <lane id="C1C2_0" queueing_time="15.00" queueing_length="13.51" queueing_length_experimental="13.51"/>
            <lane id="C2C3_0" queueing_time="11.00" queueing_length="6.00" queueing_length_experimental="6.00"/>
            <lane id="C3C2_2" queueing_time="13.00" queueing_length="6.00" queueing_length_experimental="6.00"/>
            <lane id="C4B4_2" queueing_time="16.00" queueing_length="6.00" queueing_length_experimental="6.00"/>
            <lane id="C4C3_0" queueing_time="2.00" queueing_length="6.01" queueing_length_experimental="6.01"/>
            <lane id="D0D1_0" queueing_time="16.00" queueing_length="6.00" queueing_length_experimental="6.00"/>
            <lane id="D0D1_2" queueing_time="0.00" queueing_length="0.00" queueing_length_experimental="6.08"/>
            <lane id="D1D2_0" queueing_time="19.00" queueing_length="6.00" queueing_length_experimental="6.00"/>
            <lane id="D2D3_0" queueing_time="6.00" queueing_length="6.00" queueing_length_experimental="6.00"/>
            <lane id="D3D2_0" queueing_time="16.00" queueing_length="13.50" queueing_length_experimental="13.50"/>
            <lane id="D4C4_0" queueing_time="7.00" queueing_length="6.00" queueing_length_experimental="6.00"/>
            <lane id="D4C4_2" queueing_time="34.00" queueing_length="21.00" queueing_length_experimental="21.00"/>
            <lane id="E0D0_0" queueing_time="29.00" queueing_length="13.50" queueing_length_experimental="13.50"/>
            <lane id="E0D0_1" queueing_time="1.00" queueing_length="6.01" queueing_length_experimental="6.01"/>
            <lane id="E0E1_0" queueing_time="30.00" queueing_length="6.00" queueing_length_experimental="6.00"/>
            <lane id="E0E1_1" queueing_time="7.00" queueing_length="6.00" queueing_length_experimental="6.00"/>
            <lane id="E0E1_2" queueing_time="1.00" queueing_length="6.02" queueing_length_experimental="13.69"/>
            <lane id="E2E3_2" queueing_time="8.00" queueing_length="6.00" queueing_length_experimental="6.00"/>
            <lane id="E4D4_0" queueing_time="1.00" queueing_length="6.01" queueing_length_experimental="6.01"/>
            <lane id="E4E3_0" queueing_time="25.00" queueing_length="21.00" queueing_length_experimental="21.00"/>
            <lane id="E4E3_1" queueing_time="13.00" queueing_length="6.00" queueing_length_experimental="6.00"/>
            <lane id="E4E3_2" queueing_time="5.00" queueing_length="6.00" queueing_length_experimental="6.00"/>
        </lanes>
    </data>
    <data timestep="120.00">
        <lanes>
            <lane id="A3B3_0" queueing_time="29.00" queueing_length="13.50" queueing_length_experimental="13.50"/>
            <lane id="A3B3_1" queueing_time="18.00" queueing_length="6.00" queueing_length_experimental="6.00"/>
            <lane id="A3B3_2" queueing_time="2.00" queueing_length="6.00" queueing_length_experimental="6.00"/>
            <lane id="B1B0_1" queueing_time="18.00" queueing_length="6.00" queueing_length_experimental="6.00"/>
            <lane id="B1C1_0" queueing_time="6.00" queueing_length="6.00" queueing_length_experimental="6.00"/>
            <lane id="B1C1_2" queueing_time="26.00" queueing_length="21.00" queueing_length_experimental="21.00"/>
            <lane id="B2A2_0" queueing_time="13.00" queueing_length="6.00" queueing_length_experimental="6.00"/>
            <lane id="B2C2_0" queueing_time="8.00" queueing_length="6.00" queueing_length_experimental="6.00"/>
            <lane id="B3A3_0" queueing_time="6.00" queueing_length="6.00" queueing_length_experimental="6.00"/>
            <lane id="B3A3_1" queueing_time="22.00" queueing_length="6.00" queueing_length_experimental="6.00"/>
            <lane id="B3A3_2" queueing_time="6.00" queueing_length="6.00" queueing_length_experimental="6.00"/>
            <lane id="B3B4_0" queueing_time="19.00" queueing_length="28.50" queueing_length_experimental="28.50"/>
            <lane id="C1B1_0" queueing_time="10.00" queueing_length="6.00" queueing_length_experimental="6.00"/>
            <lane id="C1B1_2" queueing_time="25.00" queueing_length="6.00" queueing_length_experimental="6.00"/>
            <lane id="C1C0_0" queueing_time="30.00" queueing_length="21.00" queueing_length_experimental="21.00"/>
            <lane id="C1D1_0" queueing_time="8.00" queueing_length="6.00" queueing_length_experimental="6.00"/>
            <lane id="C1D1_2" queueing_time="9.00" queueing_length="13.50" queueing_length_experimental="13.50"/>
            <lane id="C2D2_0" queueing_time="18.00" queueing_length="13.50" queueing_length_experimental="13.50"/>
            <lane id="C3D3_2" queueing_time="10.00" queueing_length="6.00" queueing_length_experimental="6.00"/>
            <lane id="D1C1_0" queueing_time="1.00" queueing_length="6.04" queueing_length_experimental="6.04"/>
            <lane id="D1C1_2" queueing_time="7.00" queueing_length="6.00" queueing_length_experimental="13.57"/>
            <lane id="D1D0_0" queueing_time="7.00" queueing_length="21.00" queueing_length_experimental="21.00"/>
            <lane id="D2C2_0" queueing_time="8.00" queueing_length="6.00" queueing_length_experimental="6.00"/>
            <lane id="D2C2_1" queueing_time="0.00" queueing_length="0.00" queueing_length_experimental="6.14"/>
            <lane id="D2E2_0" queueing_time="12.00" queueing_length="6.00" queueing_length_experimental="6.00"/>
            <lane id="D2E2_1" queueing_time="27.00" queueing_length="13.50" queueing_length_experimental="13.50"/>
            <lane id="D2E2_2" queueing_time="4.00" queueing_length="6.00" queueing_length_experimental="6.00"/>
            <lane id="D3D4_0" queueing_time="24.00" queueing_length="6.00" queueing_length_experimental="6.00"/>
            <lane id="D3D4_1" queueing_time="19.00" queueing_length="6.00" queueing_length_experimental="6.00"/>
            <lane id="D3E3_0" queueing_time="24.00" queueing_length="21.00" queueing_length_experimental="21.00"/>
            <lane id="E1D1_0" queueing_time="0.00" queueing_length="0.00" queueing_length_experimental="6.01"/>
            <lane id="E1D1_1" queueing_time="27.00" queueing_length="6.00" queueing_length_experimental="6.00"/>
            <lane id="E1D1_2" queueing_time="13.00" queueing_length="6.00" queueing_length_experimental="6.00"/>
            <lane id="E2D2_0" queueing_time="24.00" queueing_length="13.50" queueing_length_experimental="13.50"/>
            <lane id="E2D2_2" queueing_time="2.00" queueing_length="6.01" queueing_length_experimental="6.01"/>
            <lane id="E3D3_1" queueing_time="16.00" queueing_length="6.00" queueing_length_experimental="6.00"/>
            <lane id="E3D3_2" queueing_time="9.00" queueing_length="6.00" queueing_length_experimental="6.00"/>
        </lanes>
    </data>
    <data timestep="160.00">
        <lanes>
            <lane id="A0A1_0" queueing_time="25.00" queueing_length="13.50" queueing_length_experimental="13.50"/>
            <lane id="A0A1_1" queueing_time="21.00" queueing_length="6.00" queueing_length_experimental="6.00"/>
            <lane id="A1A2_0" queueing_time="12.00" queueing_length="28.50" queueing_length_experimental="36.14"/>
            <lane id="A2A1_0" queueing_time="20.00" queueing_length="6.00" queueing_length_experimental="6.00"/>
            <lane id="A2A1_2" queueing_time="1.00" queueing_length="6.02" queueing_length_experimental="6.02"/>
            <lane id="A3A2_2" queueing_time="26.00" queueing_length="6.00" queueing_length_experimental="6.00"/>
            <lane id="A4A3_2" queueing_time="2.00" queueing_length="6.00" queueing_length_experimental="6.00"/>
            <lane id="B0B1_0" queueing_time="10.00" queueing_length="6.00" queueing_length_experimental="6.00"/>
            <lane id="B0B1_1" queueing_time="20.00" queueing_length="13.53" queueing_length_experimental="13.53"/>
            <lane id="B0B1_2" queueing_time="25.00" queueing_length="6.00" queueing_length_experimental="6.00"/>
            <lane id="B0C0_0" queueing_time="21.00" queueing_length="6.00" queueing_length_experimental="6.00"/>
            <lane id="B0C0_2" queueing_time="17.00" queueing_length="6.00" queueing_length_experimental="6.00"/>
            <lane id="B1B2_0" queueing_time="14.00" queueing_length="6.00" queueing_length_experimental="6.00"/>
            <lane id="B3B2_0" queueing_time="22.00" queueing_length="21.04" queueing_length_experimental="21.04"/>
            <lane id="B4B3_0" queueing_time="22.00" queueing_length="13.50" queueing_length_experimental="13.50"/>
            <lane id="B4B3_1" queueing_time="21.00" queueing_length="6.00" queueing_length_experimental="6.00"/>
            <lane id="B4B3_2" queueing_time="7.00" queueing_length="6.00" queueing_length_experimental="6.00"/>
            <lane id="C0B0_0" queueing_time="1.00" queueing_length="6.06" queueing_length_experimental="6.06"/>
            <lane id="C0C1_0" queueing_time="13.00" queueing_length="6.00" queueing_length_experimental="6.00"/>
            <lane id="C0C1_1" queueing_time="0.00" queueing_length="0.00" queueing_length_experimental="6.01"/>
            <lane id="C0C1_2" queueing_time="6.00" queueing_length="6.00" queueing_length_experimental="6.00"/>
            <lane id="C0D0_2" queueing_time="8.00" queueing_length="6.00" queueing_length_experimental="6.00"/>
            <lane id="C2C1_0" queueing_time="8.00" queueing_length="13.50" queueing_length_experimental="13.50"/>
            <lane id="C2C1_2" queueing_time="26.00" queueing_length="21.00" queueing_length_experimental="21.00"/>
            <lane id="C2C3_0" queueing_time="0.00" queueing_length="0.00" queueing_length_experimental="6.17"/>
            <lane id="C2C3_2" queueing_time="16.00" queueing_length="6.00" queueing_length_experimental="6.00"/>
            <lane id="C4B4_2" queueing_time="9.00" queueing_length="13.50" queueing_length_experimental="13.50"/>
            <lane id="C4C3_0" queueing_time="16.00" queueing_length="21.00" queueing_length_experimental="21.00"/>
            <lane id="C4C3_1" queueing_time="16.00" queueing_length="6.00" queueing_length_experimental="6.00"/>
            <lane id="C4C3_2" queueing_time="12.00" queueing_length="13.50" queueing_length_experimental="13.50"/>
            <lane id="D0D1_0" queueing_time="21.00" queueing_length="28.51" queueing_length_experimental="28.51"/>
            <lane id="D0D1_1" queueing_time="10.00" queueing_length="13.50" queueing_length_experimental="21.01"/>
            <lane id="D0D1_2" queueing_time="11.00" queueing_length="13.50" queueing_length_experimental="21.08"/>
            <lane id="D1D2_0" queueing_time="20.00" queueing_length="13.50" queueing_length_experimental="13.50"/>
            <lane id="D1D2_2" queueing_time="19.00" queueing_length="21.00" queueing_length_experimental="21.00"/>
            <lane id="D2D1_0" queueing_time="10.00" queueing_length="13.54" queueing_length_experimental="13.54"/>
            <lane id="D2D3_0" queueing_time="10.00" queueing_length="6.00" queueing_length_experimental="6.00"/>
            <lane id="D3D2_0" queueing_time="18.00" queueing_length="6.00" queueing_length_experimental="6.00"/>
            <lane id="D4C4_0" queueing_time="23.00" queueing_length="6.00" queueing_length_experimental="6.00"/>
            <lane id="D4C4_2" queueing_time="9.00" queueing_length="6.00" queueing_length_experimental="6.00"/>
            <lane id="D4D3_0" queueing_time="20.00" queueing_length="13.50" queueing_length_experimental="21.02"/>
            <lane id="D4D3_1" queueing_time="9.00" queueing_length="6.00" queueing_length_experimental="6.00"/>
            <lane id="D4D3_2" queueing_time="3.00" queueing_length="6.00" queueing_length_experimental="6.00"/>
            <lane id="E0E1_0" queueing_time="2.00" queueing_length="6.00" queueing_length_experimental="6.00"/>
            <lane id="E0E1_2" queueing_time="13.00" queueing_length="6.00" queueing_length_experimental="6.00"/>
            <lane id="E1E2_0" queueing_time="21.00" queueing_length="6.00" queueing_length_experimental="6.00"/>
            <lane id="E1E2_1" queueing_time="10.00" queueing_length="6.00" queueing_length_experimental="6.00"/>
            <lane id="E1E2_2" queueing_time="7.00" queueing_length="6.00" queueing_length_experimental="6.00"/>
            <lane id="E2E1_0" queueing_time="7.00" queueing_length="13.50" queueing_length_experimental="13.50"/>
            <lane id="E2E3_0" queueing_time="0.00" queueing_length="0.00" queueing_length_experimental="6.06"/>
            <lane id="E2E3_2" queueing_time="0.00" queueing_length="0.00" queueing_length_experimental="6.08"/>
            <lane id="E3E2_0" queueing_time="22.00" queueing_length="13.50" queueing_length_experimental="13.50"/>
            <lane id="E4D4_0" queueing_time="16.00" queueing_length="6.00" queueing_length_experimental="6.00"/>
            <lane id="E4D4_2" queueing_time="25.00" queueing_length="13.50" queueing_length_experimental="13.50"/>
            <lane id="E4E3_0" queueing_time="24.00" queueing_length="36.01" queueing_length_experimental="36.01"/>
            <lane id="E4E3_1" queueing_time="1.00" queueing_length="6.02" queueing_length_experimental="6.02"/>
        </lanes>
    </data>
    <data timestep="200.00">
        <lanes>
            <lane id=":B2_4_0" queueing_time="18.00" queueing_length="5.10" queueing_length_experimental="5.10"/>
            <lane id=":C2_4_0" queueing_time="7.00" queueing_length="5.10" queueing_length_experimental="5.10"/>
            <lane id=":C4_3_1" queueing_time="2.00" queueing_length="5.10" queueing_length_experimental="5.10"/>
            <lane id=":E2_7_0" queueing_time="2.00" queueing_length="5.11" queueing_length_experimental="5.11"/>
            <lane id=":E3_7_0" queueing_time="3.00" queueing_length="5.10" queueing_length_experimental="5.10"/>
            <lane id="A2B2_0" queueing_time="16.00" queueing_length="6.00" queueing_length_experimental="6.00"/>
            <lane id="A2B2_1" queueing_time="2.00" queueing_length="6.00" queueing_length_experimental="6.00"/>
            <lane id="A3B3_0" queueing_time="5.00" queueing_length="6.00" queueing_length_experimental="6.00"/>
            <lane id="B1A1_0" queueing_time="18.00" queueing_length="6.00" queueing_length_experimental="6.00"/>
            <lane id="B1B0_0" queueing_time="18.00" queueing_length="21.00" queueing_length_experimental="21.00"/>
            <lane id="B1C1_0" queueing_time="20.00" queueing_length="6.00" queueing_length_experimental="6.00"/>
            <lane id="B1C1_2" queueing_time="11.00" queueing_length="6.00" queueing_length_experimental="6.00"/>
            <lane id="B2A2_1" queueing_time="16.00" queueing_length="6.00" queueing_length_experimental="6.00"/>
            <lane id="B2C2_0" queueing_time="22.00" queueing_length="21.00" queueing_length_experimental="21.00"/>
            <lane id="B2C2_1" queueing_time="17.00" queueing_length="13.50" queueing_length_experimental="13.50"/>
            <lane id="B2C2_2" queueing_time="18.00" queueing_length="6.00" queueing_length_experimental="6.00"/>
            <lane id="B3A3_1" queueing_time="4.00" queueing_length="6.00" queueing_length_experimental="6.00"/>
            <lane id="B3B2_2" queueing_time="17.00" queueing_length="30.10" queueing_length_experimental="30.10"/>
            <lane id="B3C3_0" queueing_time="18.00" queueing_length="28.50" queueing_length_experimental="36.37"/>
            <lane id="B3C3_1" queueing_time="19.00" queueing_length="13.50" queueing_length_experimental="13.50"/>
            <lane id="B3C3_2" queueing_time="21.00" queueing_length="6.00" queueing_length_experimental="6.00"/>
            <lane id="C1B1_0" queueing_time="1.00" queueing_length="6.03" queueing_length_experimental="6.03"/>
            <lane id="C1C0_0" queueing_time="18.00" queueing_length="21.00" queueing_length_experimental="21.00"/>
            <lane id="C1D1_0" queueing_time="21.00" queueing_length="6.00" queueing_length_experimental="6.00"/>
            <lane id="C1D1_1" queueing_time="18.00" queueing_length="6.00" queueing_length_experimental="6.00"/>
            <lane id="C2B2_0" queueing_time="22.00" queueing_length="21.00" queueing_length_experimental="21.00"/>
            <lane id="C2B2_1" queueing_time="17.00" queueing_length="13.50" queueing_length_experimental="13.50"/>
            <lane id="C2B2_2" queueing_time="12.00" queueing_length="21.00" queueing_length_experimental="21.00"/>
            <lane id="C2D2_0" queueing_time="9.00" queueing_length="6.00" queueing_length_experimental="6.00"/>
            <lane id="C2D2_1" queueing_time="7.00" queueing_length="6.00" queueing_length_experimental="6.00"/>
            <lane id="C3B3_0" queueing_time="20.00" queueing_length="13.50" queueing_length_experimental="13.50"/>
            <lane id="C3B3_1" queueing_time="9.00" queueing_length="6.00" queueing_length_experimental="6.00"/>
            <lane id="C3B3_2" queueing_time="21.00" queueing_length="13.50" queueing_length_experimental="13.50"/>
            <lane id="C3C4_0" queueing_time="17.00" queueing_length="21.00" queueing_length_experimental="21.00"/>
            <lane id="D0D1_2" queueing_time="2.00" queueing_length="15.14" queueing_length_experimental="22.72"/>
            <lane id="D1C1_0" queueing_time="18.00" queueing_length="21.00" queueing_length_experimental="21.00"/>
            <lane id="D1C1_2" queueing_time="11.00" queueing_length="13.50" queueing_length_experimental="13.50"/>
            <lane id="D1D0_0" queueing_time="14.00" queueing_length="21.00" queueing_length_experimental="21.00"/>
            <lane id="D1D0_1" queueing_time="16.00" queueing_length="6.00" queueing_length_experimental="6.00"/>
            <lane id="D1E1_1" queueing_time="17.00" queueing_length="6.00" queueing_length_experimental="6.00"/>
            <lane id="D1E1_2" queueing_time="16.00" queueing_length="13.50" queueing_length_experimental="13.50"/>
            <lane id="D2E2_0" queueing_time="7.00" queueing_length="13.50" queueing_length_experimental="13.50"/>
            <lane id="D2E2_1" queueing_time="1.00" queueing_length="6.00" queueing_length_experimental="6.00"/>
            <lane id="D3C3_0" queueing_time="16.00" queueing_length="6.00" queueing_length_experimental="6.00"/>
            <lane id="D3D4_1" queueing_time="16.00" queueing_length="6.00" queueing_length_experimental="6.00"/>
            <lane id="D3E3_0" queueing_time="19.00" queueing_length="6.00" queueing_length_experimental="6.00"/>
            <lane id="E1D1_1" queueing_time="19.00" queueing_length="6.00" queueing_length_experimental="6.00"/>
            <lane id="E1D1_2" queueing_time="17.00" queueing_length="6.00" queueing_length_experimental="6.00"/>
            <lane id="E1E2_2" queueing_time="1.00" queueing_length="5.10" queueing_length_experimental="13.66"/>
            <lane id="E2D2_2" queueing_time="23.00" queueing_length="6.00" queueing_length_experimental="6.00"/>
            <lane id="E2E3_2" queueing_time="2.00" queueing_length="6.58" queueing_length_experimental="14.13"/>
            <lane id="E3D3_1" queueing_time="2.00" queueing_length="6.00" queueing_length_experimental="6.00"/>
        </lanes>
    </data>
    <data timestep="240.00">
        <lanes>
            <lane id=":C1_19_0" queueing_time="13.00" queueing_length="5.10" queueing_length_experimental="5.10"/>
            <lane id=":C2_19_0" queueing_time="12.00" queueing_length="5.10" queueing_length_experimental="5.10"/>
            <lane id=":D1_9_0" queueing_time="5.00" queueing_length="5.10" queueing_length_experimental="5.10"/>
            <lane id="A0A1_0" queueing_time="12.00" queueing_length="13.50" queueing_length_experimental="13.50"/>
            <lane id="A0A1_1" queueing_time="0.00" queueing_length="0.00" queueing_length_experimental="6.02"/>
            <lane id="A0B0_0" queueing_time="13.00" queueing_length="6.00" queueing_length_experimental="6.00"/>
            <lane id="A0B0_1" queueing_time="6.00" queueing_length="6.00" queueing_length_experimental="6.00"/>
            <lane id="A1A2_0" queueing_time="14.00" queueing_length="13.50" queueing_length_experimental="21.18"/>
            <lane id="A1A2_1" queueing_time="1.00" queueing_length="6.04" queueing_length_experimental="6.04"/>
            <lane id="A2A1_0" queueing_time="12.00" queueing_length="6.00" queueing_length_experimental="6.00"/>
            <lane id="A2A1_1" queueing_time="4.00" queueing_length="6.00" queueing_length_experimental="6.00"/>
            <lane id="A2A1_2" queueing_time="11.00" queueing_length="13.50" queueing_length_experimental="13.50"/>
            <lane id="A2A3_0" queueing_time="15.00" queueing_length="36.01" queueing_length_experimental="36.01"/>
            <lane id="A3A2_0" queueing_time="15.00" queueing_length="6.00" queueing_length_experimental="6.00"/>
            <lane id="A3A2_2" queueing_time="9.00" queueing_length="6.00" queueing_length_experimental="6.00"/>
            <lane id="A4A3_2" queueing_time="16.00" queueing_length="6.00" queueing_length_experimental="6.00"/>
            <lane id="A4B4_0" queueing_time="4.00" queueing_length="6.00" queueing_length_experimental="6.00"/>
            <lane id="B0B1_0" queueing_time="11.00" queueing_length="6.00" queueing_length_experimental="6.00"/>
            <lane id="B0B1_1" queueing_time="0.00" queueing_length="0.00" queueing_length_experimental="6.30"/>
            <lane id="B0B1_2" queueing_time="13.00" queueing_length="6.00" queueing_length_experimental="6.00"/>
            <lane id="B0C0_1" queueing_time="4.00" queueing_length="6.00" queueing_length_experimental="6.00"/>
            <lane id="B1B2_0" queueing_time="12.00" queueing_length="6.00" queueing_length_experimental="13.51"/>
            <lane id="B1B2_1" queueing_time="0.00" queueing_length="0.00" queueing_length_experimental="6.03"/>
            <lane id="B1B2_2" queueing_time="12.00" queueing_length="6.00" queueing_length_experimental="6.00"/>
            <lane id="B1C1_2" queueing_time="11.00" queueing_length="22.60" queueing_length_experimental="22.60"/>
            <lane id="B2B1_0" queueing_time="14.00" queueing_length="6.00" queueing_length_experimental="6.00"/>
            <lane id="B2B1_2" queueing_time="2.00" queueing_length="6.01" queueing_length_experimental="13.56"/>
            <lane id="B2B3_0" queueing_time="15.00" queueing_length="36.01" queueing_length_experimental="36.01"/>
            <lane id="B2B3_1" queueing_time="9.00" queueing_length="6.00" queueing_length_experimental="6.00"/>
            <lane id="B2B3_2" queueing_time="7.00" queueing_length="6.00" queueing_length_experimental="6.00"/>
            <lane id="B2C2_2" queueing_time="4.00" queueing_length="15.10" queueing_length_experimental="15.10"/>
            <lane id="B3B2_0" queueing_time="7.00" queueing_length="6.00" queueing_length_experimental="6.00"/>
            <lane id="B4B3_0" queueing_time="15.00" queueing_length="13.50" queueing_length_experimental="13.50"/>
            <lane id="B4B3_1" queueing_time="9.00" queueing_length="13.50" queueing_length_experimental="13.50"/>
            <lane id="B4B3_2" queueing_time="10.00" queueing_length="21.04" queueing_length_experimental="21.04"/>
            <lane id="B4C4_0" queueing_time="9.00" queueing_length="6.00" queueing_length_experimental="6.00"/>
            <lane id="C0C1_0" queueing_time="13.00" queueing_length="13.50" queueing_length_experimental="13.50"/>
            <lane id="C0C1_1" queueing_time="14.00" queueing_length="21.00" queueing_length_experimental="21.00"/>
            <lane id="C0C1_2" queueing_time="14.00" queueing_length="6.00" queueing_length_experimental="6.00"/>
            <lane id="C0D0_2" queueing_time="14.00" queueing_length="21.00" queueing_length_experimental="21.00"/>
            <lane id="C1C2_0" queueing_time="13.00" queueing_length="21.00" queueing_length_experimental="21.00"/>
            <lane id="C1C2_1" queueing_time="15.00" queueing_length="13.50" queueing_length_experimental="13.50"/>
            <lane id="C1C2_2" queueing_time="15.00" queueing_length="6.00" queueing_length_experimental="6.00"/>
            <lane id="C1D1_2" queueing_time="3.00" queueing_length="22.60" queueing_length_experimental="22.60"/>
            <lane id="C2B2_2" queueing_time="4.00" queueing_length="22.60" queueing_length_experimental="22.60"/>
            <lane id="C2C1_0" queueing_time="11.00" queueing_length="6.00" queueing_length_experimental="6.00"/>
            <lane id="C2C1_1" queueing_time="15.00" queueing_length="6.00" queueing_length_experimental="6.00"/>
            <lane id="C2C3_1" queueing_time="14.00" queueing_length="6.00" queueing_length_experimental="6.00"/>
            <lane id="C2C3_2" queueing_time="16.00" queueing_length="21.00" queueing_length_experimental="21.00"/>
            <lane id="C3B3_2" queueing_time="1.00" queueing_length="7.61" queueing_length_experimental="15.41"/>
            <lane id="C3C2_0" queueing_time="15.00" queueing_length="13.50" queueing_length_experimental="13.50"/>
            <lane id="C3C2_1" queueing_time="14.00" queueing_length="6.00" queueing_length_experimental="6.00"/>
            <lane id="C3C2_2" queueing_time="14.00" queueing_length="13.50" queueing_length_experimental="13.50"/>
            <lane id="C3D3_2" queueing_time="6.00" queueing_length="7.59" queueing_length_experimental="7.59"/>
            <lane id="C4B4_0" queueing_time="10.00" queueing_length="6.00" queueing_length_experimental="6.00"/>
            <lane id="C4B4_1" queueing_time="14.00" queueing_length="6.00" queueing_length_experimental="6.00"/>
            <lane id="C4B4_2" queueing_time="15.00" queueing_length="28.51" queueing_length_experimental="28.51"/>
            <lane id="C4C3_0" queueing_time="6.00" queueing_length="13.50" queueing_length_experimental="13.50"/>
            <lane id="C4C3_1" queueing_time="14.00" queueing_length="6.00" queueing_length_experimental="6.00"/>
            <lane id="C4C3_2" queueing_time="13.00" queueing_length="6.00" queueing_length_experimental="6.00"/>
            <lane id="C4D4_0" queueing_time="9.00" queueing_length="21.00" queueing_length_experimental="28.51"/>
            <lane id="D0D1_0" queueing_time="16.00" queueing_length="13.21" queueing_length_experimental="13.21"/>
            <lane id="D0D1_2" queueing_time="2.00" queueing_length="6.00" queueing_length_experimental="6.00"/>