<?xml version="1.0" encoding="UTF-8"?>

<!-- generated on 2025-11-09 15:26:12 by Eclipse SUMO sumo Version 1.22.0
<sumoConfiguration xmlns:xsi="http://www.w3.org/2001/XMLSchema-instance" xsi:noNamespaceSchemaLocation="http://sumo.dlr.de/xsd/sumoConfiguration.xsd">

    <input>
        <net-file value="../actuated_sim/actuated.net.xml"/>
        <route-files value="../actuated_sim/../traffic_flows/generated_routes.rou.xml"/>
    </input>

    <output>
        <queue-output value="../actuated_sim/outputs/queue.xml"/>
        <queue-output.period value="20"/>
        <summary-output value="../actuated_sim/outputs/summary.xml"/>
        <tripinfo-output value="../actuated_sim/outputs/tripinfo.xml"/>
        <statistic-output value="../actuated_sim/outputs/statistics.xml"/>
    </output>

    <time>
        <begin value="0"/>
        <end value="18000"/>
    </time>

    <processing>
        <time-to-teleport value="-1"/>
    </processing>

    <report>
        <no-step-log value="true"/>
    </report>

    <traci_server>
        <remote-port value="51768"/>
    </traci_server>

    <gui_only>
        <start value="true"/>
    </gui_only>

</sumoConfiguration>
-->

<queue-export xmlns:xsi="http://www.w3.org/2001/XMLSchema-instance" xsi:noNamespaceSchemaLocation="http://sumo.dlr.de/xsd/queue_file.xsd">
    <data timestep="0.00">
        <lanes/>
    </data>
    <data timestep="20.00">
        <lanes/>
    </data>
    <data timestep="40.00">
        <lanes/>
    </data>
    <data timestep="60.00">
        <lanes/>
    </data>
    <data timestep="80.00">
        <lanes/>
    </data>
    <data timestep="100.00">
        <lanes/>
    </data>
    <data timestep="120.00">
        <lanes/>
    </data>
    <data timestep="140.00">
        <lanes>
            <lane id="A0A1_0" queueing_time="0.00" queueing_length="0.00" queueing_length_experimental="6.08"/>
            <lane id="A2B2_0" queueing_time="0.00" queueing_length="0.00" queueing_length_experimental="6.08"/>
            <lane id="E2D2_0" queueing_time="1.00" queueing_length="6.01" queueing_length_experimental="6.01"/>
        </lanes>
    </data>
    <data timestep="160.00">
        <lanes>
            <lane id="A0A1_0" queueing_time="1.00" queueing_length="6.02" queueing_length_experimental="6.02"/>
            <lane id="A2B2_0" queueing_time="5.00" queueing_length="6.00" queueing_length_experimental="6.00"/>
            <lane id="A2B2_1" queueing_time="3.00" queueing_length="6.00" queueing_length_experimental="6.00"/>
            <lane id="A4A3_0" queueing_time="3.00" queueing_length="6.00" queueing_length_experimental="13.61"/>
            <lane id="E2D2_0" queueing_time="5.00" queueing_length="13.52" queueing_length_experimental="13.52"/>
            <lane id="E2D2_1" queueing_time="4.00" queueing_length="6.00" queueing_length_experimental="21.61"/>
            <lane id="E4E3_0" queueing_time="7.00" queueing_length="6.00" queueing_length_experimental="6.00"/>
            <lane id="E4E3_1" queueing_time="1.00" queueing_length="6.02" queueing_length_experimental="6.02"/>
        </lanes>
    </data>
    <data timestep="180.00">
        <lanes>
            <lane id="A0A1_1" queueing_time="0.00" queueing_length="0.00" queueing_length_experimental="6.00"/>
            <lane id="A2B2_0" queueing_time="5.00" queueing_length="36.01" queueing_length_experimental="36.01"/>
            <lane id="A2B2_1" queueing_time="4.00" queueing_length="36.01" queueing_length_experimental="36.01"/>
            <lane id="E0E1_0" queueing_time="10.00" queueing_length="21.03" queueing_length_experimental="21.03"/>
            <lane id="E0E1_1" queueing_time="9.00" queueing_length="13.51" queueing_length_experimental="13.51"/>
            <lane id="E0E1_2" queueing_time="6.00" queueing_length="6.00" queueing_length_experimental="6.00"/>
            <lane id="E2D2_0" queueing_time="1.00" queueing_length="43.51" queueing_length_experimental="43.51"/>
            <lane id="E2D2_1" queueing_time="0.00" queueing_length="0.00" queueing_length_experimental="35.26"/>
        </lanes>
    </data>
    <data timestep="200.00">
        <lanes>
            <lane id="A0A1_0" queueing_time="0.00" queueing_length="0.00" queueing_length_experimental="20.31"/>
            <lane id="A4A3_0" queueing_time="9.00" queueing_length="13.51" queueing_length_experimental="13.51"/>
            <lane id="A4A3_1" queueing_time="2.00" queueing_length="6.01" queueing_length_experimental="6.01"/>
            <lane id="A4A3_2" queueing_time="0.00" queueing_length="0.00" queueing_length_experimental="6.22"/>
            <lane id="B2C2_0" queueing_time="7.00" queueing_length="6.00" queueing_length_experimental="6.00"/>
            <lane id="E0E1_0" queueing_time="5.00" queueing_length="6.00" queueing_length_experimental="13.81"/>
            <lane id="E0E1_1" queueing_time="2.00" queueing_length="6.00" queueing_length_experimental="6.00"/>
            <lane id="E2D2_0" queueing_time="1.00" queueing_length="6.00" queueing_length_experimental="6.00"/>
            <lane id="E2D2_1" queueing_time="1.00" queueing_length="6.02" queueing_length_experimental="6.02"/>
            <lane id="E4E3_0" queueing_time="12.00" queueing_length="13.50" queueing_length_experimental="13.50"/>
            <lane id="E4E3_1" queueing_time="8.00" queueing_length="6.00" queueing_length_experimental="6.00"/>
            <lane id="E4E3_2" queueing_time="5.00" queueing_length="6.00" queueing_length_experimental="6.00"/>
        </lanes>
    </data>
    <data timestep="220.00">
        <lanes>
            <lane id="A0A1_0" queueing_time="8.00" queueing_length="13.50" queueing_length_experimental="13.50"/>
            <lane id="A0A1_1" queueing_time="7.00" queueing_length="13.51" queueing_length_experimental="13.51"/>
            <lane id="A0A1_2" queueing_time="5.00" queueing_length="6.00" queueing_length_experimental="6.00"/>
            <lane id="A2B2_0" queueing_time="18.00" queueing_length="28.50" queueing_length_experimental="28.50"/>
            <lane id="A2B2_1" queueing_time="14.00" queueing_length="21.00" queueing_length_experimental="21.00"/>
            <lane id="A4A3_0" queueing_time="3.00" queueing_length="6.01" queueing_length_experimental="6.01"/>
            <lane id="A4A3_1" queueing_time="2.00" queueing_length="6.00" queueing_length_experimental="6.00"/>
            <lane id="C2B2_0" queueing_time="1.00" queueing_length="6.03" queueing_length_experimental="6.03"/>
            <lane id="C2D2_0" queueing_time="0.00" queueing_length="0.00" queueing_length_experimental="6.57"/>
            <lane id="E2D2_0" queueing_time="21.00" queueing_length="28.50" queueing_length_experimental="28.50"/>
            <lane id="E2D2_1" queueing_time="21.00" queueing_length="28.50" queueing_length_experimental="28.50"/>
            <lane id="E3E2_0" queueing_time="9.00" queueing_length="21.00" queueing_length_experimental="28.62"/>
            <lane id="E3E2_1" queueing_time="7.00" queueing_length="21.00" queueing_length_experimental="28.60"/>
            <lane id="E3E2_2" queueing_time="6.00" queueing_length="21.02" queueing_length_experimental="21.02"/>
        </lanes>
    </data>
    <data timestep="240.00">
        <lanes>
            <lane id="A1A2_0" queueing_time="3.00" queueing_length="13.51" queueing_length_experimental="21.11"/>
            <lane id="A1A2_1" queueing_time="0.00" queueing_length="0.00" queueing_length_experimental="14.33"/>
            <lane id="A1A2_2" queueing_time="2.00" queueing_length="6.00" queueing_length_experimental="6.00"/>
            <lane id="E0E1_0" queueing_time="8.00" queueing_length="13.50" queueing_length_experimental="21.01"/>
            <lane id="E0E1_1" queueing_time="1.00" queueing_length="13.50" queueing_length_experimental="13.50"/>
            <lane id="E2E1_0" queueing_time="5.00" queueing_length="13.50" queueing_length_experimental="13.50"/>
            <lane id="E2E3_0" queueing_time="0.00" queueing_length="0.00" queueing_length_experimental="20.48"/>
        </lanes>
    </data>
    <data timestep="260.00">
        <lanes>
            <lane id="A0A1_0" queueing_time="12.00" queueing_length="13.50" queueing_length_experimental="13.50"/>
            <lane id="A0A1_1" queueing_time="8.00" queueing_length="6.00" queueing_length_experimental="6.00"/>
            <lane id="A2A1_0" queueing_time="6.00" queueing_length="21.02" queueing_length_experimental="21.02"/>
            <lane id="A2A1_1" queueing_time="5.00" queueing_length="6.00" queueing_length_experimental="13.54"/>
            <lane id="A2A1_2" queueing_time="3.00" queueing_length="13.51" queueing_length_experimental="13.51"/>
            <lane id="A2A3_0" queueing_time="3.00" queueing_length="13.51" queueing_length_experimental="21.07"/>
            <lane id="A2A3_1" queueing_time="5.00" queueing_length="13.52" queueing_length_experimental="13.52"/>
            <lane id="A2A3_2" queueing_time="0.00" queueing_length="0.00" queueing_length_experimental="6.04"/>
            <lane id="A2B2_0" queueing_time="4.00" queueing_length="6.00" queueing_length_experimental="13.72"/>
            <lane id="A2B2_1" queueing_time="7.00" queueing_length="13.50" queueing_length_experimental="13.50"/>
            <lane id="A4A3_0" queueing_time="10.00" queueing_length="21.01" queueing_length_experimental="21.01"/>
            <lane id="A4A3_1" queueing_time="6.00" queueing_length="13.50" queueing_length_experimental="13.50"/>
            <lane id="A4A3_2" queueing_time="3.00" queueing_length="6.00" queueing_length_experimental="14.21"/>
            <lane id="C2B2_0" queueing_time="4.00" queueing_length="6.00" queueing_length_experimental="6.00"/>
            <lane id="C2D2_0" queueing_time="7.00" queueing_length="13.52" queueing_length_experimental="13.52"/>
            <lane id="C2D2_1" queueing_time="2.00" queueing_length="6.00" queueing_length_experimental="21.77"/>
            <lane id="D2C2_0" queueing_time="0.00" queueing_length="0.00" queueing_length_experimental="6.03"/>
            <lane id="E0E1_0" queueing_time="9.00" queueing_length="13.53" queueing_length_experimental="13.53"/>
            <lane id="E0E1_1" queueing_time="9.00" queueing_length="6.00" queueing_length_experimental="6.00"/>
            <lane id="E0E1_2" queueing_time="3.00" queueing_length="6.01" queueing_length_experimental="6.01"/>
            <lane id="E2D2_0" queueing_time="14.00" queueing_length="28.51" queueing_length_experimental="28.51"/>
            <lane id="E2D2_1" queueing_time="14.00" queueing_length="21.00" queueing_length_experimental="21.00"/>
            <lane id="E2E3_0" queueing_time="3.00" queueing_length="6.00" queueing_length_experimental="6.00"/>
            <lane id="E2E3_1" queueing_time="1.00" queueing_length="6.01" queueing_length_experimental="13.57"/>
            <lane id="E2E3_2" queueing_time="1.00" queueing_length="6.01" queueing_length_experimental="6.01"/>
            <lane id="E4E3_0" queueing_time="4.00" queueing_length="6.00" queueing_length_experimental="6.00"/>
        </lanes>
    </data>
    <data timestep="280.00">
        <lanes>
            <lane id="A0A1_0" queueing_time="3.00" queueing_length="13.51" queueing_length_experimental="13.51"/>
            <lane id="A0A1_1" queueing_time="0.00" queueing_length="0.00" queueing_length_experimental="6.17"/>
            <lane id="A1A2_0" queueing_time="3.00" queueing_length="36.01" queueing_length_experimental="36.01"/>
            <lane id="A1A2_1" queueing_time="0.00" queueing_length="0.00" queueing_length_experimental="27.90"/>
            <lane id="A2B2_0" queueing_time="0.00" queueing_length="0.00" queueing_length_experimental="44.03"/>
            <lane id="A2B2_1" queueing_time="0.00" queueing_length="0.00" queueing_length_experimental="35.32"/>
            <lane id="A4A3_1" queueing_time="0.00" queueing_length="0.00" queueing_length_experimental="6.00"/>
            <lane id="C2B2_0" queueing_time="9.00" queueing_length="51.01" queueing_length_experimental="51.01"/>
            <lane id="C2B2_1" queueing_time="8.00" queueing_length="58.51" queueing_length_experimental="58.51"/>
            <lane id="E3E2_0" queueing_time="0.00" queueing_length="0.00" queueing_length_experimental="12.92"/>
        </lanes>
    </data>
    <data timestep="300.00">
        <lanes>
            <lane id="A0A1_0" queueing_time="2.00" queueing_length="5.61" queueing_length_experimental="5.61"/>
            <lane id="A2B2_0" queueing_time="3.00" queueing_length="6.00" queueing_length_experimental="6.00"/>
            <lane id="A2B2_1" queueing_time="0.00" queueing_length="0.00" queueing_length_experimental="6.07"/>
            <lane id="B2C2_0" queueing_time="12.00" queueing_length="6.00" queueing_length_experimental="6.00"/>
            <lane id="B2C2_1" queueing_time="10.00" queueing_length="6.00" queueing_length_experimental="6.00"/>
            <lane id="E0E1_0" queueing_time="0.00" queueing_length="0.00" queueing_length_experimental="19.94"/>
            <lane id="E2D2_0" queueing_time="9.00" queueing_length="21.00" queueing_length_experimental="21.00"/>
            <lane id="E2D2_1" queueing_time="7.00" queueing_length="13.50" queueing_length_experimental="13.50"/>
            <lane id="E2E1_0" queueing_time="0.00" queueing_length="0.00" queueing_length_experimental="28.54"/>
            <lane id="E2E1_1" queueing_time="0.00" queueing_length="0.00" queueing_length_experimental="28.73"/>
            <lane id="E2E1_2" queueing_time="0.00" queueing_length="0.00" queueing_length_experimental="19.75"/>
            <lane id="E2E3_0" queueing_time="4.00" queueing_length="28.50" queueing_length_experimental="28.50"/>
            <lane id="E2E3_1" queueing_time="0.00" queueing_length="0.00" queueing_length_experimental="20.23"/>
            <lane id="E2E3_2" queueing_time="5.00" queueing_length="28.50" queueing_length_experimental="28.50"/>
            <lane id="E4E3_0" queueing_time="0.00" queueing_length="0.00" queueing_length_experimental="20.39"/>
        </lanes>
    </data>
    <data timestep="320.00">
        <lanes>
            <lane id="A0A1_0" queueing_time="0.00" queueing_length="0.00" queueing_length_experimental="27.53"/>
            <lane id="A2A3_0" queueing_time="5.00" queueing_length="6.00" queueing_length_experimental="13.56"/>
            <lane id="A2A3_1" queueing_time="3.00" queueing_length="6.00" queueing_length_experimental="13.75"/>
            <lane id="A2A3_2" queueing_time="4.00" queueing_length="13.51" queueing_length_experimental="13.51"/>
            <lane id="A2B2_0" queueing_time="23.00" queueing_length="28.50" queueing_length_experimental="28.50"/>
            <lane id="A2B2_1" queueing_time="20.00" queueing_length="28.50" queueing_length_experimental="28.50"/>
            <lane id="A4A3_0" queueing_time="4.00" queueing_length="6.00" queueing_length_experimental="13.53"/>
            <lane id="A4A3_1" queueing_time="3.00" queueing_length="6.00" queueing_length_experimental="6.00"/>
            <lane id="C2B2_0" queueing_time="17.00" queueing_length="51.08" queueing_length_experimental="51.08"/>
            <lane id="C2B2_1" queueing_time="14.00" queueing_length="36.01" queueing_length_experimental="43.58"/>
            <lane id="C2D2_0" queueing_time="0.00" queueing_length="0.00" queueing_length_experimental="50.23"/>
            <lane id="C2D2_1" queueing_time="0.00" queueing_length="0.00" queueing_length_experimental="49.88"/>
            <lane id="E0E1_0" queueing_time="7.00" queueing_length="13.50" queueing_length_experimental="13.50"/>
            <lane id="E0E1_1" queueing_time="7.00" queueing_length="6.00" queueing_length_experimental="6.00"/>
            <lane id="E1E2_0" queueing_time="14.00" queueing_length="28.50" queueing_length_experimental="28.50"/>
            <lane id="E1E2_1" queueing_time="15.00" queueing_length="28.50" queueing_length_experimental="28.50"/>
            <lane id="E1E2_2" queueing_time="10.00" queueing_length="21.00" queueing_length_experimental="21.00"/>
            <lane id="E2E1_0" queueing_time="3.00" queueing_length="6.00" queueing_length_experimental="6.00"/>
            <lane id="E2E1_1" queueing_time="0.00" queueing_length="0.00" queueing_length_experimental="6.05"/>
            <lane id="E2E3_0" queueing_time="4.00" queueing_length="13.50" queueing_length_experimental="21.23"/>
            <lane id="E2E3_1" queueing_time="2.00" queueing_length="6.00" queueing_length_experimental="6.00"/>
            <lane id="E2E3_2" queueing_time="0.00" queueing_length="0.00" queueing_length_experimental="6.05"/>
            <lane id="E3E2_0" queueing_time="8.00" queueing_length="28.53" queueing_length_experimental="28.53"/>
            <lane id="E3E2_1" queueing_time="6.00" queueing_length="21.01" queueing_length_experimental="21.01"/>
            <lane id="E3E2_2" queueing_time="9.00" queueing_length="13.50" queueing_length_experimental="13.50"/>
            <lane id="E4E3_0" queueing_time="3.00" queueing_length="6.00" queueing_length_experimental="13.53"/>
            <lane id="E4E3_1" queueing_time="5.00" queueing_length="6.00" queueing_length_experimental="6.00"/>
        </lanes>
    </data>
    <data timestep="340.00">
        <lanes>
            <lane id="A1A2_0" queueing_time="9.00" queueing_length="13.50" queueing_length_experimental="13.50"/>
            <lane id="A1A2_1" queueing_time="7.00" queueing_length="13.50" queueing_length_experimental="13.50"/>
            <lane id="A1A2_2" queueing_time="5.00" queueing_length="13.50" queueing_length_experimental="13.50"/>
            <lane id="A2B2_0" queueing_time="0.00" queueing_length="0.00" queueing_length_experimental="6.01"/>
            <lane id="A3A2_0" queueing_time="9.00" queueing_length="28.53" queueing_length_experimental="28.53"/>
            <lane id="A3A2_1" queueing_time="7.00" queueing_length="13.50" queueing_length_experimental="21.18"/>
            <lane id="A3A2_2" queueing_time="4.00" queueing_length="13.50" queueing_length_experimental="21.19"/>
            <lane id="E2D2_1" queueing_time="0.00" queueing_length="0.00" queueing_length_experimental="6.05"/>
            <lane id="E2E3_0" queueing_time="2.00" queueing_length="6.00" queueing_length_experimental="6.00"/>
            <lane id="E2E3_1" queueing_time="4.00" queueing_length="6.00" queueing_length_experimental="6.00"/>
            <lane id="E4E3_0" queueing_time="3.00" queueing_length="6.00" queueing_length_experimental="13.64"/>
            <lane id="E4E3_1" queueing_time="4.00" queueing_length="6.00" queueing_length_experimental="6.00"/>
        </lanes>
    </data>
    <data timestep="360.00">
        <lanes>
            <lane id="A0A1_1" queueing_time="0.00" queueing_length="0.00" queueing_length_experimental="12.19"/>
            <lane id="A2A1_0" queueing_time="9.00" queueing_length="21.00" queueing_length_experimental="21.00"/>
            <lane id="A2A1_1" queueing_time="4.00" queueing_length="21.00" queueing_length_experimental="21.00"/>
            <lane id="A2A1_2" queueing_time="8.00" queueing_length="21.00" queueing_length_experimental="21.00"/>
            <lane id="A2A3_0" queueing_time="9.00" queueing_length="28.51" queueing_length_experimental="28.51"/>
            <lane id="A2A3_1" queueing_time="7.00" queueing_length="21.01" queueing_length_experimental="21.01"/>
            <lane id="A2A3_2" queueing_time="0.00" queueing_length="0.00" queueing_length_experimental="23.71"/>
            <lane id="A2B2_0" queueing_time="20.00" queueing_length="28.55" queueing_length_experimental="28.55"/>
            <lane id="A2B2_1" queueing_time="18.00" queueing_length="21.00" queueing_length_experimental="28.77"/>
            <lane id="A4A3_0" queueing_time="11.00" queueing_length="13.50" queueing_length_experimental="21.05"/>
            <lane id="A4A3_1" queueing_time="2.00" queueing_length="13.50" queueing_length_experimental="13.50"/>
            <lane id="C2B2_0" queueing_time="16.00" queueing_length="36.01" queueing_length_experimental="36.01"/>
            <lane id="C2B2_1" queueing_time="14.00" queueing_length="28.50" queueing_length_experimental="28.50"/>
            <lane id="C2D2_0" queueing_time="13.00" queueing_length="21.00" queueing_length_experimental="28.52"/>
            <lane id="C2D2_1" queueing_time="8.00" queueing_length="21.01" queueing_length_experimental="28.62"/>
            <lane id="D2C2_0" queueing_time="7.00" queueing_length="21.01" queueing_length_experimental="36.28"/>
            <lane id="D2C2_1" queueing_time="7.00" queueing_length="13.51" queueing_length_experimental="29.52"/>
            <lane id="E0E1_0" queueing_time="13.00" queueing_length="21.00" queueing_length_experimental="21.00"/>
            <lane id="E0E1_1" queueing_time="9.00" queueing_length="6.00" queueing_length_experimental="28.79"/>
            <lane id="E0E1_2" queueing_time="7.00" queueing_length="6.00" queueing_length_experimental="6.00"/>
            <lane id="E2D2_0" queueing_time="18.00" queueing_length="28.50" queueing_length_experimental="36.01"/>
            <lane id="E2D2_1" queueing_time="20.00" queueing_length="28.51" queueing_length_experimental="28.51"/>
        </lanes>
    </data>
    <data timestep="380.00">
        <lanes>
            <lane id="A0A1_0" queueing_time="6.00" queueing_length="21.02" queueing_length_experimental="21.02"/>
            <lane id="A0A1_1" queueing_time="6.00" queueing_length="6.00" queueing_length_experimental="13.67"/>
            <lane id="A0A1_2" queueing_time="6.00" queueing_length="6.00" queueing_length_experimental="6.00"/>
            <lane id="A4A3_0" queueing_time="7.00" queueing_length="13.50" queueing_length_experimental="13.50"/>
            <lane id="A4A3_1" queueing_time="4.00" queueing_length="6.00" queueing_length_experimental="6.00"/>
            <lane id="E1E2_0" queueing_time="5.00" queueing_length="28.50" queueing_length_experimental="36.18"/>
            <lane id="E1E2_1" queueing_time="4.00" queueing_length="28.52" queueing_length_experimental="28.52"/>
            <lane id="E1E2_2" queueing_time="4.00" queueing_length="21.00" queueing_length_experimental="21.00"/>
            <lane id="E3E2_1" queueing_time="0.00" queueing_length="0.00" queueing_length_experimental="12.38"/>
        </lanes>
    </data>
    <data timestep="400.00">
        <lanes>
            <lane id="A1A2_0" queueing_time="12.00" queueing_length="13.50" queueing_length_experimental="13.50"/>
            <lane id="A1A2_1" queueing_time="0.00" queueing_length="0.00" queueing_length_experimental="6.04"/>
            <lane id="A2B2_0" queueing_time="11.00" queueing_length="21.00" queueing_length_experimental="21.00"/>
            <lane id="A2B2_1" queueing_time="10.00" queueing_length="13.50" queueing_length_experimental="13.50"/>
            <lane id="A3A2_0" queueing_time="3.00" queueing_length="6.00" queueing_length_experimental="6.00"/>
            <lane id="A3A2_1" queueing_time="0.00" queueing_length="0.00" queueing_length_experimental="6.32"/>
            <lane id="A3A2_2" queueing_time="0.00" queueing_length="0.00" queueing_length_experimental="6.23"/>
            <lane id="B2C2_0" queueing_time="0.00" queueing_length="0.00" queueing_length_experimental="6.14"/>
            <lane id="E2D2_0" queueing_time="12.00" queueing_length="21.00" queueing_length_experimental="21.00"/>
            <lane id="E2D2_1" queueing_time="12.00" queueing_length="13.50" queueing_length_experimental="13.50"/>
            <lane id="E2E1_0" queueing_time="1.00" queueing_length="6.00" queueing_length_experimental="6.00"/>
            <lane id="E4E3_0" queueing_time="5.00" queueing_length="6.00" queueing_length_experimental="6.00"/>
            <lane id="E4E3_1" queueing_time="2.00" queueing_length="6.00" queueing_length_experimental="6.00"/>
        </lanes>
    </data>
    <data timestep="420.00">
        <lanes>
            <lane id="A2A3_0" queueing_time="8.00" queueing_length="28.50" queueing_length_experimental="28.50"/>
            <lane id="A2A3_1" queueing_time="4.00" queueing_length="28.50" queueing_length_experimental="28.50"/>
            <lane id="A2A3_2" queueing_time="0.00" queueing_length="0.00" queueing_length_experimental="20.29"/>
        </lanes>
    </data>
    <data timestep="440.00">
        <lanes>
            <lane id="A0A1_0" queueing_time="12.00" queueing_length="21.00" queueing_length_experimental="21.00"/>
            <lane id="A0A1_1" queueing_time="11.00" queueing_length="6.00" queueing_length_experimental="13.61"/>
            <lane id="A0A1_2" queueing_time="3.00" queueing_length="6.00" queueing_length_experimental="6.00"/>
            <lane id="A1A2_0" queueing_time="0.00" queueing_length="0.00" queueing_length_experimental="28.10"/>
            <lane id="A1A2_2" queueing_time="0.00" queueing_length="0.00" queueing_length_experimental="28.01"/>
            <lane id="A2A1_0" queueing_time="12.00" queueing_length="6.00" queueing_length_experimental="13.51"/>
            <lane id="A2A1_1" queueing_time="2.00" queueing_length="6.00" queueing_length_experimental="6.00"/>
            <lane id="A2B2_0" queueing_time="8.00" queueing_length="13.52" queueing_length_experimental="21.38"/>
            <lane id="A2B2_1" queueing_time="5.00" queueing_length="6.00" queueing_length_experimental="14.01"/>
            <lane id="A3A2_0" queueing_time="0.00" queueing_length="0.00" queueing_length_experimental="28.04"/>
            <lane id="A3A2_1" queueing_time="0.00" queueing_length="0.00" queueing_length_experimental="27.39"/>
            <lane id="A4A3_0" queueing_time="8.00" queueing_length="21.00" queueing_length_experimental="21.00"/>
            <lane id="A4A3_1" queueing_time="10.00" queueing_length="6.00" queueing_length_experimental="13.58"/>
            <lane id="A4A3_2" queueing_time="4.00" queueing_length="6.00" queueing_length_experimental="6.00"/>
            <lane id="E1E2_0" queueing_time="8.00" queueing_length="6.00" queueing_length_experimental="6.00"/>
            <lane id="E2E3_0" queueing_time="11.00" queueing_length="28.51" queueing_length_experimental="28.51"/>
            <lane id="E2E3_1" queueing_time="10.00" queueing_length="21.00" queueing_length_experimental="28.52"/>
            <lane id="E2E3_2" queueing_time="8.00" queueing_length="21.00" queueing_length_experimental="21.00"/>
            <lane id="E4E3_0" queueing_time="8.00" queueing_length="21.00" queueing_length_experimental="21.00"/>
            <lane id="E4E3_1" queueing_time="5.00" queueing_length="13.50" queueing_length_experimental="13.50"/>
        </lanes>
    </data>
    <data timestep="460.00">
        <lanes>
            <lane id="A0A1_1" queueing_time="0.00" queueing_length="0.00" queueing_length_experimental="6.04"/>
            <lane id="A1A2_0" queueing_time="3.00" queueing_length="6.00" queueing_length_experimental="6.00"/>
            <lane id="A1A2_1" queueing_time="0.00" queueing_length="0.00" queueing_length_experimental="6.03"/>
            <lane id="A1A2_2" queueing_time="0.00" queueing_length="0.00" queueing_length_experimental="6.52"/>
            <lane id="A2B2_0" queueing_time="0.00" queueing_length="0.00" queueing_length_experimental="43.15"/>
            <lane id="A3A2_0" queueing_time="1.00" queueing_length="6.02" queueing_length_experimental="6.02"/>
            <lane id="C2D2_0" queueing_time="15.00" queueing_length="28.51" queueing_length_experimental="43.89"/>
            <lane id="C2D2_1" queueing_time="14.00" queueing_length="28.52" queueing_length_experimental="36.08"/>
            <lane id="D2C2_0" queueing_time="0.00" queueing_length="0.00" queueing_length_experimental="44.07"/>
            <lane id="E2D2_0" queueing_time="17.00" queueing_length="13.50" queueing_length_experimental="13.50"/>
            <lane id="E2D2_1" queueing_time="19.00" queueing_length="13.50" queueing_length_experimental="21.15"/>
        </lanes>
    </data>
    <data timestep="480.00">
        <lanes>
            <lane id="A2B2_0" queueing_time="1.00" queueing_length="6.00" queueing_length_experimental="6.00"/>
            <lane id="A4A3_0" queueing_time="0.00" queueing_length="0.00" queueing_length_experimental="21.18"/>
            <lane id="A4A3_1" queueing_time="0.00" queueing_length="0.00" queueing_length_experimental="12.53"/>
            <lane id="E0E1_0" queueing_time="13.00" queueing_length="21.00" queueing_length_experimental="21.00"/>
            <lane id="E0E1_1" queueing_time="15.00" queueing_length="13.50" queueing_length_experimental="13.50"/>
            <lane id="E0E1_2" queueing_time="13.00" queueing_length="6.00" queueing_length_experimental="6.00"/>
            <lane id="E1E2_0" queueing_time="8.00" queueing_length="13.50" queueing_length_experimental="13.50"/>
            <lane id="E1E2_1" queueing_time="1.00" queueing_length="6.01" queueing_length_experimental="6.01"/>
            <lane id="E4E3_0" queueing_time="9.00" queueing_length="13.50" queueing_length_experimental="21.04"/>
            <lane id="E4E3_1" queueing_time="3.00" queueing_length="13.51" queueing_length_experimental="13.51"/>
        </lanes>
    </data>
    <data timestep="500.00">
        <lanes>
            <lane id="A0A1_0" queueing_time="4.00" queueing_length="6.00" queueing_length_experimental="6.00"/>
            <lane id="A0A1_1" queueing_time="6.00" queueing_length="6.00" queueing_length_experimental="6.00"/>
            <lane id="A0A1_2" queueing_time="2.00" queueing_length="6.00" queueing_length_experimental="6.00"/>
            <lane id="A2B2_0" queueing_time="21.00" queueing_length="21.00" queueing_length_experimental="28.58"/>
            <lane id="A2B2_1" queueing_time="17.00" queueing_length="28.51" queueing_length_experimental="28.51"/>
            <lane id="A4A3_0" queueing_time="0.00" queueing_length="0.00" queueing_length_experimental="6.04"/>
            <lane id="B2C2_0" queueing_time="3.00" queueing_length="13.58" queueing_length_experimental="21.16"/>